# vtk DataFile Version 1.0
vtk output
ASCII

DATASET UNSTRUCTURED_GRID
POINTS 12 float
0.0 0.0 0.0
2.0 0.0 0.0
2.0 2.0 0.0
0.0 2.0 0.0
0.0 0.0 12.0
2.0 0.0 12.0
2.0 2.0 12.0
0.0 2.0 12.0
2.0 2.0 6.0
0.0 0.0 6.0
0.0 2.0 6.0
2.0 0.0 6.0

CELLS 12 60
4 2 10 0 8
4 2 0 1 8
4 4 11 9 8
4 0 10 9 8
4 6 10 4 7
4 4 11 8 5
4 0 11 1 8
4 2 10 3 0
4 6 10 8 4
4 5 4 6 8
4 0 11 8 9
4 4 10 8 9

CELL_TYPES 12
10
10 
10 
10 
10 
10 
10 
10 
10 
10 
10 
10

POINT_DATA 12
VECTORS bases float
1.0 1.5 3.0
1.5 1.0 1.5
1.0 0.5 7.5
0.5 1.0 4.5
0.5 1.5 10.5
1.5 0.5 9.0
1.5 0.5 3.0
0.5 1.5 1.5
1.0 1.5 9.0
1.5 1.0 10.5
1.0 0.5 4.5
0.5 1.0 7.5

VECTORS arrows float
-0.01507491 0.03723121 -0.0129668 
-0.03326826 -0.0199011 -0.02256698
 0.02146086 0.01593132 -0.00850041
 0.04709876 -0.01072127 0.02371834
-0.02917470 -0.02366079 -0.01654174
 0.00895826 0.00112063 0.01322671
 0.00895826 0.00112063 -0.01322671
-0.02917470 -0.02366079 0.01654174
-0.01507491  0.03723121 0.0129668 
-0.03326826 -0.0199011 0.02256698
 0.02146086 0.01593132 0.00850041
 0.04709876 -0.01072127 -0.02371834
