# vtk DataFile Version 2.0
Mesh
ASCII
DATASET UNSTRUCTURED_GRID
POINTS 64 float
0.0 0.0 0.0
2.0 0.0 0.0
2.0 2.0 0.0
0.0 2.0 0.0
0.0 0.0 6.0
2.0 0.0 6.0
2.0 2.0 6.0
0.0 2.0 6.0
0.0 0.0 12.0
2.0 0.0 12.0
2.0 2.0 12.0
0.0 2.0 12.0
0.0 0.0 18.0
2.0 0.0 18.0
2.0 2.0 18.0
0.0 2.0 18.0
4.0 0.0 0.0
6.0 0.0 0.0
6.0 2.0 0.0
4.0 2.0 0.0
4.0 0.0 6.0
6.0 0.0 6.0
6.0 2.0 6.0
4.0 2.0 6.0
4.0 0.0 12.0
6.0 0.0 12.0
6.0 2.0 12.0
4.0 2.0 12.0
4.0 0.0 18.0
6.0 0.0 18.0
6.0 2.0 18.0
4.0 2.0 18.0
0.0 4.0 0.0
2.0 4.0 0.0
2.0 6.0 0.0
0.0 6.0 0.0
0.0 4.0 6.0
2.0 4.0 6.0
2.0 6.0 6.0
0.0 6.0 6.0
0.0 4.0 12.0
2.0 4.0 12.0
2.0 6.0 12.0
0.0 6.0 12.0
0.0 4.0 18.0
2.0 4.0 18.0
2.0 6.0 18.0
0.0 6.0 18.0
4.0 4.0 0.0
6.0 4.0 0.0
6.0 6.0 0.0
4.0 6.0 0.0
4.0 4.0 6.0
6.0 4.0 6.0
6.0 6.0 6.0
4.0 6.0 6.0
4.0 4.0 12.0
6.0 4.0 12.0
6.0 6.0 12.0
4.0 6.0 12.0
4.0 4.0 18.0
6.0 4.0 18.0
6.0 6.0 18.0
4.0 6.0 18.0
CELLS 162 810
4 48 49 53 18
4 5 9 24 27
4 2 0 7 3
4 48 52 54 55
4 32 38 39 36
4 6 37 41 56
4 7 6 40 11
4 32 38 37 33
4 6 0 5 4
4 23 1 16 20
4 23 2 1 6
4 23 6 27 56
4 32 2 37 36
4 56 61 57 62
4 42 46 40 41
4 9 5 10 27
4 29 24 30 25
4 0 1 6 5
4 22 23 16 20
4 13 12 14 8
4 1 23 6 5
4 38 36 42 43
4 37 38 42 59
4 6 10 27 56
4 40 6 41 10
4 52 48 53 18
4 2 0 1 6
4 0 2 7 6
4 7 0 6 4
4 4 6 11 10
4 2 32 37 33
4 23 6 56 52
4 38 32 37 36
4 37 38 36 42
4 6 41 10 56
4 23 52 18 19
4 32 38 33 34
4 2 33 52 48
4 32 38 34 39
4 35 32 34 39
4 52 59 54 55
4 24 29 30 28
4 38 39 36 43
4 2 7 6 36
4 2 6 37 36
4 7 2 3 36
4 3 2 32 36
4 23 6 5 27
4 56 61 62 60
4 46 45 40 41
4 36 42 43 40
4 6 7 4 11
4 1 23 5 20
4 23 22 16 18
4 36 42 40 41
4 42 46 41 63
4 23 52 22 18
4 14 9 8 10
4 36 37 42 41
4 14 13 9 31
4 24 30 25 26
4 58 56 59 52
4 6 37 36 41
4 6 36 40 41
4 42 47 43 40
4 7 6 36 40
4 5 6 10 27
4 45 44 46 40
4 56 58 63 62
4 47 42 46 40
4 44 47 46 40
4 12 15 14 8
4 6 40 11 10
4 30 24 28 31
4 13 14 9 8
4 56 58 59 63
4 44 45 14 10
4 45 40 41 10
4 15 14 8 10
4 11 15 8 10
4 4 11 8 10
4 9 4 8 10
4 5 6 4 10
4 5 4 9 10
4 44 15 11 10
4 15 44 14 10
4 45 44 40 10
4 40 44 11 10
4 45 41 63 60
4 1 23 16 19
4 23 2 52 19
4 22 16 18 17
4 26 61 56 60
4 48 54 49 50
4 41 56 63 60
4 63 56 62 60
4 37 2 33 52
4 58 56 57 62
4 52 48 18 19
4 9 13 28 31
4 14 9 10 31
4 10 9 27 31
4 24 9 28 31
4 9 24 27 31
4 27 24 26 31
4 24 30 26 31
4 61 26 56 57
4 56 58 57 52
4 56 37 59 52
4 42 41 59 63
4 37 41 56 59
4 37 42 41 59
4 52 2 48 19
4 37 59 52 55
4 6 37 56 52
4 46 45 41 63
4 41 56 59 63
4 30 26 31 60
4 30 61 26 60
4 27 26 56 60
4 26 27 31 60
4 41 45 10 60
4 41 10 56 60
4 10 27 56 60
4 27 10 31 60
4 45 14 10 60
4 10 14 31 60
4 23 2 6 52
4 6 2 37 52
4 52 53 22 18
4 16 22 21 17
4 59 58 52 54
4 22 16 21 20
4 52 48 54 53
4 54 48 49 53
4 58 52 54 53
4 58 57 52 53
4 37 38 59 55
4 33 52 48 55
4 51 33 48 55
4 48 54 50 55
4 51 48 50 55
4 33 51 34 55
4 38 33 34 55
4 38 37 33 55
4 33 37 52 55
4 2 23 1 19
4 57 52 53 22
4 16 23 18 19
4 26 56 57 22
4 56 23 52 22
4 57 56 52 22
4 26 27 56 22
4 27 23 56 22
4 24 5 27 20
4 5 23 27 20
4 27 23 22 20
4 25 24 26 20
4 25 26 21 20
4 24 27 26 20
4 26 22 21 20
4 26 27 22 20
CELL_TYPES 162
10 10 10 10 10 10 10 10 10 10 10 10 10 10 10 10 10 10 10 10 10 10 10 10 10 10 10 10 10 10 10 10 10 10 10 10 10 10 10 10 10 10 10 10 10 10 10 10 10 10 10 10 10 10 10 10 10 10 10 10 10 10 10 10 10 10 10 10 10 10 10 10 10 10 10 10 10 10 10 10 10 10 10 10 10 10 10 10 10 10 10 10 10 10 10 10 10 10 10 10 10 10 10 10 10 10 10 10 10 10 10 10 10 10 10 10 10 10 10 10 10 10 10 10 10 10 10 10 10 10 10 10 10 10 10 10 10 10 10 10 10 10 10 10 10 10 10 10 10 10 10 10 10 10 10 10 10 10 10 10 10 10
POINT_DATA 64
VECTORS bases float
 5.5 3.5 1.5
 3.0 0.5 10.5
 0.5 1.5 1.5
 4.5 5.0 4.5
 0.5 5.0 4.5
 2.5 3.5 9.0
 0.5 2.5 9.0
 1.5 4.5 3.0
 1.0 0.5 4.5
 3.5 0.5 3.0
 2.5 1.5 3.0
 3.5 2.5 9.0
 1.0 3.5 3.0
 5.5 4.5 15.0
 1.5 5.0 13.5
 2.5 1.0 10.5
 5.5 0.5 15.0
 1.5 0.5 3.0
 4.5 1.0 4.5
 1.0 0.5 16.5
 2.5 1.0 4.5
 1.0 5.5 9.0
 2.5 5.5 9.0
 3.0 2.5 10.5
 1.5 3.0 10.5
 5.0 3.5 3.0
 1.5 1.0 1.5
 1.0 1.5 3.0
 0.5 1.0 4.5
 1.0 1.5 9.0
 1.5 3.5 1.5
 3.5 3.0 7.5
 1.0 4.5 4.5
 1.5 5.0 7.5
 2.5 3.0 10.5
 4.5 2.5 3.0
 1.5 5.0 1.5
 3.0 3.5 1.5
 1.0 5.5 3.0
 0.5 5.5 1.5
 4.5 5.5 7.5
 5.0 0.5 16.5
 0.5 5.5 7.5
 1.0 2.5 4.5
 1.5 3.0 4.5
 0.5 2.5 3.0
 0.5 3.0 1.5
 3.0 1.5 7.5
 5.0 4.5 16.5
 1.5 4.5 15.0
 0.5 5.0 10.5
 0.5 1.5 7.5
 3.0 0.5 4.5
 5.0 1.5 3.0
 1.0 4.5 10.5
 2.5 5.5 15.0
 5.0 2.5 4.5
 1.5 1.0 13.5
 1.5 4.5 9.0
 2.5 1.0 16.5
 5.5 1.0 13.5
 4.5 5.0 10.5
 1.5 3.5 7.5
 1.0 3.5 9.0
VECTORS arrows float
 -0.00924403 -0.00367698 -0.00580355
 0.01062182 0.00146508 -0.00573418
 0.00535496 0.00662344 -0.00864447
 -0.02585888 -0.01238133 -0.00382719
 0.00277535 0.00770728 -0.00265882
 0.00685980 -0.00393140 0.01044870
 -0.01148190 0.00997493 -0.01697238
 0.00419021 0.00044911 0.00334176
 0.02226161 0.00934468 -0.01421183
 0.00175539 0.00132088 0.00727107
 0.00875803 0.00290194 0.00310993
 -0.00370050 0.00555387 0.01116639
 0.01884932 0.01453206 -0.00335930
 0.02752794 0.01230007 -0.00646622
 -0.01113030 -0.00715144 0.00870139
 0.00780928 0.00428660 -0.00763437
 -0.00230127 0.00056673 0.00397919
 0.00523753 0.01303061 -0.00442458
 -0.00643607 0.00044808 0.00705255
 -0.00612829 -0.00356114 -0.01438226
 0.00495481 0.00904868 -0.00054877
 0.00462373 -0.02055568 0.01108681
 -0.01296313 -0.00085750 0.01547078
 0.00681165 0.00367449 0.00448419
 0.00591413 0.00462268 0.00030436
 -0.02579593 -0.02196382 0.00411563
 0.00895749 0.00362705 0.00031973
 0.01820948 -0.01099051 -0.00150486
 0.01151939 0.01994840 -0.01527202
 0.01587509 -0.03136449 -0.01020126
 0.00614705 -0.00108845 0.00372706
 -0.00105932 0.00361260 0.01287933
 0.01145523 -0.00015053 -0.00193218
 -0.00411960 -0.00121277 0.01320125
 0.00452383 0.00511244 0.00430678
 -0.00431781 0.00419649 0.00661921
 0.00626118 -0.00115075 0.00370915
 0.00365890 -0.00156516 0.00822604
 0.00545794 -0.00230462 0.00270469
 0.00233744 0.00249191 0.00046342
 0.02306741 0.00613060 -0.00713175
 -0.00030157 0.00045810 0.00266364
 -0.00512535 -0.00123692 0.00363683
 0.01085651 0.00106619 -0.00164641
 0.01250341 0.00311063 0.00101528
 0.00339942 0.00249088 -0.00698687
 0.00520067 -0.00212117 -0.00517426
 -0.00153994 -0.00031171 0.00800511
 0.00786170 0.01674079 0.00419590
 -0.01658706 -0.00373284 0.00562186
 -0.00296520 0.00708809 -0.00338660
 -0.00333668 0.00509632 -0.02287951
 0.01260273 0.00109058 0.00067843
 -0.00882621 0.00363246 0.00492291
 0.00460668 0.00014126 -0.00233446
 -0.00261773 -0.00940633 0.01191425
 -0.00536854 0.00412075 0.00460588
 -0.00549315 -0.00442428 -0.00698771
 -0.01204877 0.00523934 0.00916771
 -0.00182253 -0.00323404 -0.00624086
 -0.00115997 0.00196018 0.00336397
 0.00303142 -0.00621659 0.00417106
 -0.00281985 -0.00121664 0.00666668
 0.01483861 0.02165597 -0.00516983
